DF-ISE text
# Written by SEMulator3D

Info {
  version = 1.1
  type    = boundary
  dimension   = 3
  nb_vertices = 6899
  nb_edges    = 22406
  nb_faces    = 15583
  nb_elements = 75
  nb_regions  = 75
  regions     = [ "Si3N4_LPCVD_1" "Polymer_1" "SiO2_Thermal_1" "Si_Amorph_1" "SiO2_PECVD_1" "SiO2_PECVD_2" "SiO2_PECVD_3" "SiO2_PECVD_4" "SiO2_PECVD_5" "SiO2_PECVD_6" "SiO2_PECVD_7" "SiO2_PECVD_8" "SiO2_PECVD_9" "SiO2_PECVD_10" "SiO2_PECVD_11" "SiO2_PECVD_12" "SiO2_PECVD_13" "SiO2_PECVD_14" "SiO2_PECVD_15" "SiO2_PECVD_16" "SiO2_PECVD_17" "SiO2_PECVD_18" "SiO2_PECVD_19" "SiO2_PECVD_20" "SiO2_PECVD_21" "SiO2_PECVD_22" "SiO2_PECVD_23" "SiO2_PECVD_24" "SiO2_PECVD_25" "SiO2_PECVD_26" "SiO2_PECVD_27" "SiO2_PECVD_28" "SiO2_PECVD_29" "SiO2_PECVD_30" "SiO2_PECVD_31" "SiO2_PECVD_32" "SiO2_PECVD_33" "SiO2_PECVD_34" "SiO2_PECVD_35" "SiO2_PECVD_36" "SiO2_PECVD_37" "SiO2_PECVD_38" "SiO2_PECVD_39" "SiO2_PECVD_40" "SiO2_PECVD_41" "SiO2_PECVD_42" "SiO2_PECVD_43" "SiO2_PECVD_44" "SiO2_PECVD_45" "SiO2_PECVD_46" "SiO2_PECVD_47" "SiO2_PECVD_48" "SiO2_PECVD_49" "SiO2_PECVD_50" "SiO2_PECVD_51" "SiO2_PECVD_52" "SiO2_PECVD_53" "SiO2_PECVD_54" "SiO2_PECVD_55" "SiO2_PECVD_56" "SiO2_PECVD_57" "SiO2_PECVD_58" "SiO2_PECVD_59" "SiO2_PECVD_60" "SiO2_PECVD_61" "SiO2_PECVD_62" "SiO2_PECVD_63" "SiO2_PECVD_64" "SiO2_PECVD_65" "SiO2_PECVD_66" "SiO2_PECVD_67" "SiO2_PECVD_68" "SiO2_PECVD_69" "SiO2_PECVD_70" "Si_Xtal_1" ]
  materials   = [ Si3N4_LPCVD Polymer SiO2_Thermal Si_Amorph SiO2_PECVD SiO2_PECVD SiO2_PECVD SiO2_PECVD SiO2_PECVD SiO2_PECVD SiO2_PECVD SiO2_PECVD SiO2_PECVD SiO2_PECVD SiO2_PECVD SiO2_PECVD SiO2_PECVD SiO2_PECVD SiO2_PECVD SiO2_PECVD SiO2_PECVD SiO2_PECVD SiO2_PECVD SiO2_PECVD SiO2_PECVD SiO2_PECVD SiO2_PECVD SiO2_PECVD SiO2_PECVD SiO2_PECVD SiO2_PECVD SiO2_PECVD SiO2_PECVD SiO2_PECVD SiO2_PECVD SiO2_PECVD SiO2_PECVD SiO2_PECVD SiO2_PECVD SiO2_PECVD SiO2_PECVD SiO2_PECVD SiO2_PECVD SiO2_PECVD SiO2_PECVD SiO2_PECVD SiO2_PECVD SiO2_PECVD SiO2_PECVD SiO2_PECVD SiO2_PECVD SiO2_PECVD SiO2_PECVD SiO2_PECVD SiO2_PECVD SiO2_PECVD SiO2_PECVD SiO2_PECVD SiO2_PECVD SiO2_PECVD SiO2_PECVD SiO2_PECVD SiO2_PECVD SiO2_PECVD SiO2_PECVD SiO2_PECVD SiO2_PECVD SiO2_PECVD SiO2_PECVD SiO2_PECVD SiO2_PECVD SiO2_PECVD SiO2_PECVD SiO2_PECVD Si_Xtal ]
}

Data {
  CoordSystem {
    translate = [ 0 0 0 ]
    transform = [ 1 0 0
                  0 1 0
                  0 0 1 ]
  }

  Vertices (6899) {
    -616.005 -325.887 304.214
    -597.828 -322.434 303.985
    -615.747 -305.498 303.996
    -615.767 -339.997 304.151
    -568.076 -326.674 304.038
    -615.968 -291.072 304.035
    -547.055 -261.555 304.063
    -599.551 -261.121 304.023
    -616.002 -257.377 304.121
    -558.39 -339.995 304.045
    -529.029 -305.529 304.059
    -530.962 -339.898 304.059
    -518.459 -340.006 304.017
    -512.676 -339.636 304.018
    -615.996 -225.344 304.039
    -516.063 -198.063 304.063
    -616.004 -185.293 304.035
    -591.023 -162.023 304.045
    -615.983 -154.776 304.162
    -615.938 -139.583 304.008
    -592.396 -124.053 304.043
    -530.063 -95.5627 304.063
    -616.01 -119.966 304.146
    -615.709 -101.728 304.038
    -599.709 -69.019 304.032
    -615.998 -79.4887 304.135
    -615.985 -32.5379 304.07
    -572.857 -40.0848 304.043
    -615.833 -4.87354 304.012
    -440.313 -50.0627 304.063
    -479.254 -299.36 304.061
    -497.619 -339.994 304.073
    -483.218 -326.796 303.996
    -458.453 -339.988 304.29
    -459.679 -327.516 304.012
    -423.795 -289.545 304.059
    -429.751 -340.001 304.018
    -411.729 -339.725 304.01
    -400.027 -307.215 304.054
    -394.302 -339.98 304.075
    -372.974 -340.012 304.2
    -367.975 -324.128 304.014
    -377.063 -222.063 304.063
    -349.289 -296.414 304.062
    -356.941 -339.996 304.048
    -321.579 -339.995 304.031
    -290.726 -339.859 304.052
    -243.343 -308.417 304.042
    -274.335 -339.978 304.05
    -230.619 -339.995 304.134
    -255.311 -209.561 304.063
    -256.938 75.4373 304.063
    -191.946 -339.993 304.044
    -158.809 -259.559 304.063
    -133.156 -339.995 304.021
    -113.519 -339.996 304.155
    -101.045 -309.685 304.045
    -99.5549 -229.055 304.063
    -68.7305 -339.997 304.034
    -47.7804 -304.78 304.061
    -36.2947 -340 304.042
    -24.6384 -325.865 304.027
    -26.5049 -339.985 304.191
    -7.90873 -328.682 304.021
    25.5188 -339.994 304.043
    50.0185 -291.641 304.061
    17.9412 -163.059 304.063
    101.937 97.4373 304.063
    -615.987 9.25911 304.121
    -592.115 24.2442 304.043
    -615.984 33.3166 304.091
    -600.059 34.332 304.023
    -603.523 59.3654 304.021
    -616.024 57.2196 304.144
    -507.561 79.6892 304.063
    -615.997 78.2498 304.031
    -602.245 94.0835 304.021
    -616.006 105.33 304.175
    -615.984 139.786 304.037
    -594.967 117.388 304.051
    -536.063 157.937 304.063
    -601.63 175.808 304.035
    -616.003 165.683 304.135
    -616.004 199.829 304.062
    -615.909 184.247 304.155
    -570.141 210.945 304.046
    -615.995 235.048 304.064
    -596.594 263.609 304.032
    -454.563 233.437 304.063
    -615.965 263.736 304.143
    -616 284.778 304.03
    -579.881 299.244 304.058
    -616.011 311.017 304.048
    -601.245 337.255 304.021
    -616.009 341.866 304.224
    -536.059 337.941 304.063
    -616.022 365.516 304.034
    -615.995 395.715 304.05
    -537.286 405.301 304.045
    -580.854 429.996 304.034
    -615.98 429.972 304.149
    -556.847 429.993 304.104
    -495.568 430.003 304.017
    -463.043 383.457 304.055
    -245.063 291.437 304.063
    -376.063 341.937 304.063
    -412.999 429.996 304.039
    -340.387 399.937 304.048
    -468.571 422.873 304.015
    -446.027 429.897 304.043
    -467.113 429.995 304.345
    -361.228 429.999 304.05
    -288.063 351.937 304.063
    -246.41 404.275 304.047
    -294.935 415.752 304.028
    -309.033 429.999 304.062
    -291.368 429.986 304.223
    -254.437 429.979 304.05
    -32.5627 251.687 304.063
    -140.304 356.884 304.061
    -197.033 391.967 304.051
    -213.616 419.366 303.993
    -221.74 429.996 304.143
    -204.975 430.002 304.069
    -160.536 429.996 304.026
    -138.664 429.983 304.048
    -113.161 429.851 304.026
    -71.42 381.799 304.059
    32.4397 349.815 304.062
    -30.0418 405.051 304.033
    -96.9576 429.981 304.042
    -70.4403 429.969 304.041
    -33.479 429.99 304.157
    -10.4233 419.44 304.018
    9.35245 401.852 304.045
    -3.24066 429.984 304.112
    51.7789 -340.01 304.056
    80.84 -319.041 304.031
    56.3808 -339.777 304.043
    131.941 -259.059 304.063
    76.7184 -339.989 304.156
    117.831 -340.005 304.046
    165.361 -339.995 304.055
    182.581 -321.815 304.05
    193.142 -339.994 304.191
    248.453 -282.047 304.063
    213.637 -340.007 304.03
    257.699 -339.999 304.06
    276.301 -339.723 304.028
    184.937 -155.063 304.063
    204.937 -6.06274 304.063
    285.459 -57.0412 304.055
    279.947 -199.053 304.059
    329.934 -339.958 304.261
    330.005 -326.378 304.039
    301.37 -340.007 304.11
    295.228 -319.334 304.044
    319.461 -313.157 304.009
    308.98 -284.52 304.039
    330.01 -258.537 304.044
    329.996 -295.727 304.12
    329.916 -312.853 304.262
    329.985 -234.82 304.048
    330.004 -194.109 304.046
    329.997 -140.041 304.055
    329.745 -123.615 304.051
    330.004 -88.924 304.046
    330.006 -55.4078 304.045
    312.735 -38.0147 304.029
    303.726 -1.64853 304.047
    329.987 -29.1075 304.229
    330.027 -6.26849 304.03
    329.969 21.3459 304.052
    219.937 271.937 304.063
    285.65 91.0255 304.047
    281.649 155.707 304.061
    285.767 55.7049 304.059
    304.631 209.009 304.049
    119.754 355.379 304.062
    59.1489 407.08 304.039
    14.2227 429.82 304.012
    34.0277 429.999 304.153
    80.1278 430.004 304.124
    110.921 429.769 304.026
    123.75 412.942 304.002
    144.278 429.998 304.067
    147.942 396.192 304.054
    213.541 359.744 304.059
    199.545 429.999 304.031
    249.463 389.151 304.05
    230.335 429.765 304.01
    245.885 430.033 304.025
    297.82 343.476 304.057
    264.492 419.992 304.016
    265.284 429.999 304.287
    329.993 62.7534 304.046
    330.018 106.005 304.074
    329.988 141.432 304.047
    329.898 83.7706 304.058
    321.906 177.098 304.023
    329.994 173.177 304.369
    330 206.773 304.087
    329.997 252.477 304.041
    311.526 287.048 304.039
    329.998 288.523 304.172
    329.974 323.668 304.029
    303.976 385.976 304.047
    329.997 366.069 304.055
    329.995 409.897 304.086
    294.54 417.1 304.021
    286.333 429.972 304.105
    312.272 430.013 304.029
    300.097 430.017 304.244
    329.971 429.924 304.289
    -589.362 -339.978 203.985
    -615.996 -339.961 203.893
    -615.988 -308.492 203.948
    -615.97 -272.654 203.91
    -596.726 -282.498 204.011
    -555.239 -299.087 204.016
    -550.493 -339.994 203.961
    -491.779 -339.99 203.948
    -501.476 -307.972 204.019
    -454.519 -157.472 204.016
    -587.774 -228.518 204.012
    -616.024 -246.256 203.953
    -616.007 -198.336 203.964
    -569.766 -149.328 204.016
    -615.981 -147.941 203.969
    -594.878 -120.79 204.008
    -616.018 -115.8 203.918
    -615.999 -60.061 203.96
    -582.493 -71.7668 204.011
    -615.89 -96.3985 203.979
    -598.867 -21.5237 204.008
    -616.019 -4.44545 203.968
    -563.88 27.192 204.015
    -458.016 -319.016 204.016
    -436.704 -339.98 203.967
    -409.328 -284.063 204.016
    -382.481 -339.98 203.98
    -318.497 -315.561 204.012
    -354.611 -339.766 203.987
    -342.847 -339.985 203.935
    -293.365 -340.002 203.973
    -173.641 -180.48 204.016
    -256.704 -339.962 203.977
    -226.516 -288.141 204.016
    -218.922 -339.985 203.985
    -356.264 201.574 204.016
    -180.641 -288.391 204.016
    -180.858 -339.999 203.952
    -145.122 -339.983 203.983
    -95.2484 -296.986 204.015
    -103.64 -340.011 203.959
    -62.4142 -339.903 203.984
    -27.5157 -309.016 204.016
    -1.0664 -339.898 203.991
    -35.6791 -339.901 203.954
    26.2352 -281.119 204.016
    54.04 117.882 204.016
    157.52 -96.3204 204.016
    -616.002 64.5237 203.976
    -591.924 91.0481 204.007
    -616.028 109.685 203.955
    -542.944 127.25 204.015
    -597.643 141.374 204.026
    -616.001 148.558 203.771
    -615.901 178.429 203.984
    -568.429 188.041 204.007
    -615.981 217.434 203.966
    -616.024 253.374 203.935
    -579.624 245.882 204.01
    -458.481 217.875 204.016
    -615.965 284.941 203.965
    -595.097 294.536 204.003
    -615.979 318.1 203.977
    -615.963 372.041 203.964
    -575.476 348.279 204.015
    -616.01 349.399 203.942
    -616.017 397.809 203.974
    -560.978 406.315 204.011
    -483.906 378.375 204.016
    -615.945 430.004 203.942
    -565.095 429.953 203.97
    -545.968 429.791 203.971
    -524.437 429.992 203.976
    -415.887 398.175 204.015
    -469.718 429.989 203.957
    -462.574 421.088 203.993
    -408.012 429.995 203.94
    -379.301 429.852 203.968
    -335.719 395.198 204.016
    -261.734 360.609 204.016
    -199.629 282.715 204.016
    -342.209 429.989 203.959
    -312.421 429.997 203.929
    -289.748 429.989 203.985
    -269.005 429.98 203.959
    -249.05 411.354 204.02
    -238.158 429.984 203.925
    -49.7188 279.904 204.016
    -117.789 356.875 204.016
    -171.054 398.094 204.013
    -227.786 406.225 204.015
    -199.264 410.986 204.008
    -169.504 429.992 203.93
    -141.994 429.836 203.984
    -117.559 429.955 203.973
    -55.9096 406.631 204.013
    -76.8276 429.982 203.981
    -9.74831 411.221 204.01
    -45.2973 429.995 203.875
    -26.0856 429.992 203.979
    -11.1831 429.811 203.961
    24.5387 430 203.949
    41.1444 -340.002 203.945
    50.721 -322.488 204.013
    88.0886 -339.971 203.95
    79.4114 -317.476 204.014
    112.475 -340.009 203.979
    146.4 -293.976 204.016
    135.621 -339.903 203.976
    158.865 -340.011 203.973
    173.812 -339.863 203.974
    203.855 -328.735 204.005
    222.325 -339.986 203.967
    230.75 -275.719 204.016
    247.86 -312.203 204.015
    258.868 -339.988 203.956
    276.484 -299.016 204.016
    269.117 -147.68 204.016
    292.547 -109.109 204.016
    284.777 -37.3557 204.017
    286.797 16.0781 204.016
    329.892 -340.01 203.921
    305.862 -323.511 204.013
    330.004 -314.539 203.913
    290.016 -219.766 204.016
    329.93 -290.955 203.981
    310.984 -270.016 204.016
    329.949 -265.465 203.899
    329.99 -242.103 203.978
    329.899 -212.211 203.963
    319.055 -175.245 204.008
    330.006 -145.044 203.974
    329.986 -186.087 203.908
    329.985 -107.816 203.919
    329.988 -76.7673 203.991
    311.519 -11.9754 204.027
    329.997 16.6401 203.944
    329.986 -44.9797 203.95
    330.008 -19.2692 203.861
    155.99 249.981 204.016
    280.047 79.1718 204.016
    59.2343 382.859 204.016
    144.047 362.734 204.016
    96.9551 405.033 204.008
    30.7353 408.423 204.012
    76.4831 429.988 203.969
    142.073 429.998 203.971
    278.276 342.632 204.017
    208.817 406.085 204.011
    214.293 429.99 203.922
    272.994 397.136 204.016
    264.138 429.981 203.97
    308.984 58.4843 204.016
    329.592 30.4713 203.991
    329.97 37.8473 203.959
    329.993 86.2564 203.948
    299.172 148.734 204.016
    313.837 109.257 204.015
    329.994 132.109 203.957
    299.984 193.984 204.016
    330.014 164.722 203.966
    329.954 189.605 203.922
    330.008 221.235 203.962
    302.672 216.859 204.016
    310.485 249.735 204.012
    329.982 284.436 203.979
    306.048 287.139 204.015
    329.996 370.689 203.993
    329.955 402.137 203.989
    330.008 337.085 203.957
    294.991 429.927 203.973
    329.903 430.013 203.902
    -615.977 -340.005 241.706
    -550.289 -340.016 254.126
    -616.029 -286.757 213.458
    -615.974 -254.188 253.441
    -616.033 -303.739 283.743
    -615.958 -340.016 293.48
    -616.026 -307.253 298.997
    -616.047 -271.552 296.228
    -536.826 -340.025 295.974
    -505.912 -340.01 290.52
    -615.969 -220.031 241.969
    -615.996 -163.958 273.355
    -615.976 -131.029 242.471
    -616.013 -93.7363 225.861
    -615.972 -98.3526 260.872
    -615.969 -50.0314 239.969
    -615.978 -7.14583 252.09
    -616 -60.6779 275.071
    -616.035 -190.683 292.196
    -616.04 -131.869 291.54
    -616.087 -95.3723 291.201
    -616.058 -9.75024 290.538
    -454.217 -340.017 239.186
    -416.031 -340.016 249.969
    -352.801 -340.069 213.72
    -351.154 -340.013 242.283
    -380.179 -339.994 274.433
    -302.997 -340.014 238.202
    -256.029 -340.012 242.471
    -409.31 -340.034 293.826
    -291.007 -340.022 285.568
    -156.438 -340.011 255.207
    -78.2769 -340.01 228.543
    -56.0933 -340.045 218.295
    -41.4331 -340.007 265.919
    -13.478 -340.024 222.418
    -616.04 11.9035 292.85
    -615.962 40.4302 243.936
    -616.006 78.6518 268.351
    -615.973 126.157 249.845
    -615.991 169.991 266.163
    -615.995 189.027 218.79
    -615.984 225.973 261.973
    -615.972 278.613 240.781
    -616.011 251.483 279.295
    -616.03 132.072 293.554
    -616.058 184.717 286.853
    -616.022 295.894 215.031
    -615.976 326.971 236.471
    -615.982 369.974 238.224
    -615.969 429.999 238.097
    -547.899 429.994 252.42
    -544.565 430.046 217.622
    -616.017 402.795 277.148
    -406.088 429.99 275.378
    -383.733 430.028 219.374
    -352.031 429.992 243.969
    -262.916 429.991 237.46
    -452.161 429.999 290.514
    -253.251 430.007 282.034
    -136.529 429.992 242.471
    -148.721 430.061 211.573
    -112.277 429.993 228.598
    -90.7491 430.038 216.231
    -38.5935 429.986 246.617
    -89.3882 429.992 270.609
    -12.432 430.015 211.573
    0.97451 429.992 248.475
    -120.185 430.03 285.362
    -50.7346 430.04 283.135
    -10.5546 430.028 285.136
    43.6923 -340.017 238.169
    95.9725 -340.008 228.973
    77.9146 -340.002 268.821
    135.269 -340.008 219.204
    189.321 -340.033 227.474
    231.019 -340.012 245.987
    294.369 -340.002 250.377
    63.3232 -340.019 298.967
    330.01 -339.947 244.636
    329.981 -340.007 277.353
    329.996 -279.59 218.899
    329.992 -292.773 269.477
    329.976 -238.031 243.969
    278.494 -340.054 289.675
    330.02 -315.447 295.48
    330.013 -209.324 214.228
    329.982 -177.894 251.644
    329.979 -101.458 254.302
    329.983 -46.8883 265.507
    329.984 16.9725 240.973
    330.024 -235.079 293.888
    330.023 -112.926 297.288
    82.5786 429.992 261.813
    192.911 429.991 254.572
    240.642 430.023 219.483
    263.969 429.992 252.969
    19.6471 430.013 293.304
    110.724 430.019 297.547
    233.734 430.015 292.454
    330.056 29.2306 214.676
    329.995 49.7737 221.86
    329.98 94.0906 257.002
    329.974 150.361 248.933
    329.978 187.545 253.635
    329.981 239.404 263.769
    329.992 43.977 272.352
    330.038 80.2995 287.807
    330.032 155.079 296.074
    329.976 301.969 239.969
    329.984 353.973 250.66
    330.022 387.905 212.716
    329.989 383.658 272.357
    303.493 429.993 230.85
    329.968 430.032 230.106
    330.005 300.029 286.949
    295.497 429.995 273.224
    330.001 429.962 262.351
    330.037 344.101 288.265
    -615.774 -339.996 364.625
    -598.786 -340.015 364.064
    -615.996 -331.116 363.992
    -615.875 -321.566 364.061
    -582.571 -308.607 363.997
    -556.111 -339.994 364.087
    -616.01 -267.549 364.261
    -607.513 -263.497 364.002
    -615.95 -242.994 364.079
    -615.962 -293.868 364.066
    -543.796 -315.516 363.988
    -523.892 -339.994 364.039
    -521.781 -276.156 363.984
    -593.547 -237.113 363.999
    -616.001 -208.257 364.044
    -564.906 -172.281 363.985
    -616.018 -181.111 364.073
    -615.967 -154.277 364.047
    -616.018 -130.314 364.036
    -575.856 -109.38 363.987
    -377.766 -136.922 363.984
    -615.984 -86.5673 364.079
    -607.419 -73.4636 364.009
    -608.039 -52.7705 364.017
    -545.281 -49.0314 363.984
    -615.995 -53.8469 364.291
    -615.837 -32.7243 364.041
    -615.992 -11.548 364.013
    -508.781 27.8436 363.984
    -478.031 -340.001 364.072
    -439.233 -339.945 364.098
    -465.246 -319.584 364.001
    -409.154 -289.279 363.988
    -419.384 -332.126 364.005
    -419.547 -339.984 364.427
    -403.412 -339.986 364.067
    -383.179 -339.989 364.389
    -382.881 -332.475 364.01
    -347.87 -310.225 363.99
    -370.407 -339.995 364.099
    -344.679 -339.987 364.042
    -317.673 -340.006 364.101
    -309.499 -331.58 364.001
    -283.031 -292.031 363.984
    -291.644 -339.982 364.075
    -260.207 -340.003 364.065
    -238.046 -315.457 363.992
    -176.719 -188.25 363.984
    -113.43 -31.3673 363.984
    -223.355 -339.976 364.056
    -222.641 -322.669 364.011
    -198.707 -340.001 364.158
    -206.427 -324.097 364.015
    -190.62 -327.98 364.014
    -160.409 -272.71 363.986
    -173.942 -340.001 364.041
    -163.2 -339.883 364.066
    -142.409 -339.976 364.036
    -127.635 -324.92 364
    -93.5304 -276.28 363.986
    -118.077 -339.999 364.154
    -93.4025 -339.998 364.028
    -62.7283 -318.666 363.993
    -67.6493 -339.99 364.164
    -28.9064 -287.281 363.984
    -39.0824 -339.984 364.065
    -7.69239 -340.004 364.03
    11.077 -320.007 363.987
    -615.918 8.16214 364.02
    -616.01 35.6657 364.095
    -589.421 52.9922 364
    -615.915 77.1804 364.053
    -590.48 116.109 363.995
    -616.02 106.733 364.057
    -522.031 171.594 363.984
    -615.975 129.912 364.084
    -615.995 165.465 364.056
    -593.71 196.608 363.998
    -615.945 200.02 364.007
    -615.997 220.299 364.024
    -615.988 249.804 364.06
    -579.533 252.963 364
    -398.313 144.656 363.984
    -531.631 331.15 364.003
    -616.005 293.29 364.034
    -575.042 298.395 364.024
    -600.65 323.336 363.998
    -615.977 339.423 364.1
    -572.047 351.953 364.016
    -615.749 355.488 364.026
    -615.982 370.087 364.055
    -615.987 413.639 364.056
    -590.768 399.232 364.008
    -590.99 422.353 364.002
    -615.677 430.058 364.053
    -588.598 429.981 364.279
    -561.133 417.111 364.015
    -540.096 407.502 363.994
    -559.284 430.01 364.103
    -518.072 429.985 364.116
    -522.018 406.982 364.008
    -464.798 349.452 364.022
    -155.07 271.43 363.985
    -264.843 312.625 363.985
    -363.539 364.961 364
    -397.002 404.114 364.008
    -500.26 419.246 364.014
    -445.923 429.995 364.035
    -484.127 429.992 364.145
    -406.916 429.994 364.043
    -370.939 429.994 364.124
    -285.404 378.471 363.988
    -371.327 419.803 364.011
    -337.041 408.872 364.004
    -331.994 429.999 364.112
    -297.016 429.997 364.063
    -260.85 429.981 364.038
    -242.065 403.767 363.993
    44.8431 230.781 363.985
    -184.896 404.186 364.008
    -131.659 410.681 364.009
    -72.8697 384.035 363.989
    -241.52 429.711 364.04
    -217.537 429.998 364.122
    -202.68 415.575 364.016
    -166.219 429.997 364.125
    -161.037 423.182 364.011
    -150.341 423.323 364.01
    -129.028 430 364.094
    10.1318 399.486 364
    -41.6792 417.226 364.007
    -108.447 429.775 364.022
    -93.6566 430.018 364.06
    -75.8249 429.905 364.067
    -55.9052 430.009 364.057
    -30.6205 429.996 364.141
    -10.3538 429.974 364.056
    6.90659 429.755 364.048
    24.8322 -339.989 364.266
    45.2006 -339.996 364.057
    47.7186 -272.781 363.984
    62.7525 -339.986 364.058
    70.3771 -327.583 364.002
    84.8285 -339.993 364.068
    112.719 -286.031 363.984
    132.966 -339.991 364.033
    156.775 -318.264 363.99
    180.777 -339.996 364.086
    206.725 -310.65 363.996
    220.09 -339.988 364.078
    139.469 -206.656 363.984
    252.612 -333.096 363.998
    250.579 -340.014 364.527
    267.969 -296.031 363.984
    285.239 -246.033 363.986
    283.265 -339.982 364.036
    206.195 97.0312 364.015
    212.119 -74.3498 363.996
    265.469 -165.531 363.984
    236.207 22.9569 364.008
    308.106 -121.155 364.011
    308.719 -340.015 364.018
    311.484 -291.016 364.016
    329.965 -241.338 364.048
    329.978 -339.948 364.126
    330.009 -284.522 364.086
    329.966 -197.086 364.027
    329.999 -218.781 364.069
    329.985 -165.891 364.054
    329.983 -125.017 364.052
    307.98 -76.0196 364.008
    321.08 -104.566 363.98
    330.006 -87.2647 364.115
    329.998 -40.9539 364.064
    308.604 -40.5206 364.004
    301.724 -5.40049 363.996
    329.967 4.60895 364.06
    329.987 -101.962 364.456
    287.957 53.9569 364.024
    251.922 207.922 364.016
    294.841 133.653 364.01
    179.922 299.922 364.016
    300.415 265.579 364.016
    70.5857 403.424 364.002
    113.91 387.066 363.992
    156.707 383.457 364.024
    27.104 430.015 364.037
    61.0197 429.99 364.126
    95.0669 429.976 364.03
    122.069 430 364.096
    128.627 413.005 363.988
    217.446 362.946 364.033
    192.174 408.107 363.993
    146.329 429.983 364.08
    162.79 429.971 364.01
    179.25 429.77 364.079
    212.615 429.991 364.137
    224.238 412.507 364.015
    247.015 429.987 364.109
    267.951 349.951 364.027
    270.498 403.779 363.986
    329.916 27.376 363.998
    330.012 53.5344 364.082
    329.985 77.2081 364.048
    296.491 99.714 364.007
    329.981 129.605 364.026
    329.993 106.984 364.094
    304.852 170.102 364
    329.727 148.475 364.017
    330.013 162.523 364.135
    329.998 206.528 364.086
    307.817 216.007 363.992
    329.733 241.252 364.056
    322.402 261.321 363.993
    330.011 256.228 364.442
    329.989 287.376 364.079
    309.973 331.549 364.009
    301.475 386.975 363.996
    330.01 372.57 364.057
    313.674 429.998 364.055
    287.429 430.015 364.113
    329.942 429.655 364.07
    -615.996 -339.99 328.107
    -616.027 -304.631 351.445
    -616.059 -306.035 318.486
    -616.029 -278.265 328.985
    -537.707 -339.992 326.191
    -514.202 -340.013 315.615
    -616.029 -215.375 344.28
    -616.031 -155.016 337.984
    -616.032 -94.9559 311.513
    -616.03 -101.415 346.294
    -616.047 -27.8131 342.595
    -616.037 -11.1836 313.132
    -616.032 -1.65931 340.374
    -464.242 -339.996 332.099
    -410.276 -340.021 311.267
    -382.755 -339.983 341.117
    -332.348 -339.985 332.028
    -300.287 -340.033 315.187
    -259.843 -339.988 329.087
    -165.055 -340.017 355.001
    -616.029 54.9848 348.697
    -616.047 77.0123 355.989
    -616.043 108.306 336.89
    -616.034 193.316 338.556
    -616.034 260.808 334.263
    -616.029 331.361 341.673
    -616.027 387.6 332.728
    -616.074 356.307 347.259
    -615.989 430.01 335.304
    -445.131 430.035 317.602
    -246.526 430.025 357.153
    -103.554 430.005 319.152
    -80.0868 430.017 341.092
    -109.516 430.01 354.03
    7.97157 430.008 345.565
    60.8027 -340.021 314.75
    280.772 -340.021 313.559
    329.93 -340.002 328.665
    330.003 -316.682 331.181
    330.01 -264.725 333.663
    330.008 -176.375 338.336
    330.019 -112.221 313.93
    330.002 -16.9068 325.73
    13.879 430.021 311.164
    107.212 430.032 320.637
    169.494 430.008 355.145
    232.515 430.013 310.786
    270.964 429.99 335.366
    330.046 18.4541 347.122
    330.011 61.4284 338.745
    330.035 151.998 348.041
    330.043 233.073 355.735
    330.004 318.659 335.507
    330.009 403.577 343.53
    329.975 429.98 330.254
    330.043 429.952 355.003
    -605.853 -304.227 399.993
    -588.459 -321.082 399.98
    -598.588 -321.133 399.892
    -582.177 -304.857 400.088
    -605.727 -323.069 400.03
    -582.153 -287.17 399.962
    -605.886 -282.364 400.05
    -581.651 -296.09 400.027
    -582.24 -322.954 400.004
    -599.073 -246.655 399.979
    -581.98 -261.941 399.997
    -605.844 -244.957 400.198
    -546.066 -320.944 399.994
    -559.39 -340.012 399.824
    -569.733 -339.938 399.992
    -546.216 -339.973 399.992
    -533.741 -339.982 400.007
    -533.946 -327.12 400.041
    -510.245 -339.848 399.917
    -533.774 -301.905 400.016
    -570.176 -305.687 400.014
    -564.079 -286.716 399.931
    -569.821 -285.24 399.959
    -546.118 -291.422 400.008
    -553.3 -286.788 400.008
    -547.482 -283.767 399.974
    -510.124 -299.245 399.982
    -533.882 -280.826 400.037
    -533.837 -236.817 400.012
    -510.148 -246.438 399.989
    -533.881 -262.361 399.916
    -519.851 -271.882 399.994
    -510.359 -276.382 399.91
    -509.871 -255.619 399.889
    -605.869 -225.396 399.979
    -582.212 -223.044 400.047
    -582.115 -242.071 400.087
    -582.141 -194.597 399.964
    -605.913 -198.174 399.888
    -592.869 -186.6 399.996
    -606.276 -186.579 400.308
    -605.927 -174.419 399.966
    -582.105 -161.989 400.016
    -605.852 -150.507 399.98
    -592.041 -145.422 399.977
    -600.211 -142.578 400.163
    -605.744 -141.016 400.548
    -589.189 -142.556 399.1
    -582.204 -140.829 399.968
    -563.031 -249.353 400
    -569.784 -251.117 399.893
    -569.86 -233.734 400.072
    -545.983 -233.596 399.969
    -551.448 -249.387 400.033
    -546.211 -250.59 399.994
    -546.165 -210.895 399.964
    -569.925 -209.668 399.887
    -569.853 -176.699 400.015
    -517.005 -214.684 399.99
    -510.148 -225.996 400.007
    -533.832 -220.344 400.049
    -528.276 -214.905 400.005
    -533.728 -213.227 400.91
    -546.179 -183.31 400.002
    -570.143 -161.098 399.967
    -546.134 -158.108 400.082
    -546.316 -146.644 400.014
    -569.779 -144.364 399.93
    -569.787 -127.047 399.956
    -545.764 -134.382 400.058
    -527.125 -177.493 399.376
    -533.774 -179.104 399.995
    -526.408 -175.786 399.995
    -533.885 -160.858 400.015
    -515.827 -177.129 399.881
    -510.078 -161.704 400.014
    -534.002 -136.445 399.999
    -509.749 -178.882 399.781
    -511.752 -140.424 399.994
    -510.096 -146.91 400.022
    -534.091 -123.523 400.064
    -510.13 -133.093 399.965
    -598.762 -105.311 399.6
    -601.603 -101.689 399.991
    -587.155 -105.118 399.769
    -582.152 -98.8902 399.973
    -582.274 -107.028 399.904
    -605.831 -75.8152 399.975
    -582.357 -86.0813 400.023
    -605.887 -107.193 400.286
    -605.952 -53.8318 400.019
    -582.298 -72.5986 399.846
    -583.734 -58.1237 399.998
    -582.233 -42.5749 399.955
    -605.861 -28.9536 400.077
    -582.219 -60.8211 400.335
    -604.068 -12.6007 399.99
    -582.174 -4.72235 399.993
    -605.822 -11.3933 400.351
    -605.979 0.107579 400.066
    -569.826 -120.815 400.406
    -563.141 -119.259 399.991
    -569.964 -104.365 400.015
    -546.129 -106.138 400.005
    -545.808 -96.674 399.948
    -546.145 -122.94 400.097
    -556.851 -87.9912 399.995
    -569.893 -95.2273 399.519
    -561.803 -76.3118 399.996
    -570.035 -88.4502 399.931
    -569.722 -69.0455 400.133
    -563.721 -70.4627 399.186
    -550.111 -70.5044 399.974
    -546.169 -68.8501 399.973
    -534.769 -112.099 399.989
    -533.739 -60.4141 399.952
    -509.817 -71.097 399.941
    -533.838 -73.0754 399.996
    -533.805 -101.209 400.148
    -510.202 -89.8623 399.935
    -546.159 -14.6665 399.994
    -552.857 -33.1336 399.786
    -562.375 -33.1442 399.979
    -569.862 -1.30538 400.034
    -569.823 -35.1829 400.038
    -546.273 -34.8617 399.94
    -510.15 -55.4958 400.122
    -533.869 -46.0684 399.978
    -510.156 -45.9001 399.985
    -533.685 2.66175 399.965
    -527.71 1.14338 400.047
    -533.783 -13.6354 400.005
    -510.13 -17.4245 399.993
    -517.326 1.25097 400.013
    -454.894 -323.422 400.008
    -461.748 -324.273 400.198
    -461.895 -306.015 400.047
    -461.828 -339.951 399.929
    -497.838 -291.189 399.969
    -490.813 -321.221 399.995
    -497.839 -323.143 400.019
    -479.824 -321.222 399.928
    -474.075 -301.914 400.021
    -498.095 -275.823 399.98
    -474.104 -257.522 399.962
    -474.285 -273.196 400.037
    -474.248 -322.758 399.984
    -456.706 -286.676 399.999
    -438.18 -299.532 399.996
    -461.858 -285.28 400.012
    -438.199 -339.951 399.908
    -438.229 -325.897 400.001
    -402.308 -340.028 399.885
    -425.834 -339.88 399.914
    -402.151 -317.35 400.044
    -425.798 -313.411 399.92
    -414.925 -311.998 399.97
    -389.848 -323.241 400.046
    -389.817 -316.035 400.011
    -382.496 -321.12 399.994
    -449.452 -286.689 400.002
    -438.268 -284.91 399.932
    -425.889 -292.901 399.986
    -402.16 -300.66 399.999
    -402.074 -275.877 399.983
    -425.716 -278.387 399.923
    -414.929 -268.515 399.988
    -425.931 -269.823 400.184
    -426.021 -252.01 399.949
    -400.784 -309.112 399.815
    -402.122 -246.225 400.024
    -389.744 -278.139 400.154