DF-ISE text
# Written by SEMulator3D

Info {
  version = 1.1
  type    = boundary
  dimension   = 3
  nb_vertices = 9707
  nb_edges    = 32117
  nb_faces    = 22555
  nb_elements = 144
  nb_regions  = 144
  regions     = [ "Si3N4_LPCVD_1" "Polymer_1" "SiO2_Thermal_1" "Si_Amorph_1" "Si_Amorph_2" "Si_Amorph_3" "Si_Amorph_4" "Si_Amorph_5" "Si_Amorph_6" "Si_Amorph_7" "Si_Amorph_8" "Si_Amorph_9" "Si_Amorph_10" "Si_Amorph_11" "Si_Amorph_12" "Si_Amorph_13" "Si_Amorph_14" "Si_Amorph_15" "Si_Amorph_16" "Si_Amorph_17" "Si_Amorph_18" "Si_Amorph_19" "Si_Amorph_20" "Si_Amorph_21" "Si_Amorph_22" "Si_Amorph_23" "Si_Amorph_24" "Si_Amorph_25" "Si_Amorph_26" "Si_Amorph_27" "Si_Amorph_28" "Si_Amorph_29" "Si_Amorph_30" "Si_Amorph_31" "Si_Amorph_32" "Si_Amorph_33" "Si_Amorph_34" "Si_Amorph_35" "Si_Amorph_36" "Si_Amorph_37" "Si_Amorph_38" "Si_Amorph_39" "Si_Amorph_40" "Si_Amorph_41" "Si_Amorph_42" "Si_Amorph_43" "Si_Amorph_44" "Si_Amorph_45" "Si_Amorph_46" "Si_Amorph_47" "Si_Amorph_48" "Si_Amorph_49" "Si_Amorph_50" "Si_Amorph_51" "Si_Amorph_52" "Si_Amorph_53" "Si_Amorph_54" "Si_Amorph_55" "Si_Amorph_56" "Si_Amorph_57" "Si_Amorph_58" "Si_Amorph_59" "Si_Amorph_60" "Si_Amorph_61" "Si_Amorph_62" "Si_Amorph_63" "Si_Amorph_64" "Si_Amorph_65" "Si_Amorph_66" "Si_Amorph_67" "Si_Amorph_68" "Si_Amorph_69" "Si_Amorph_70" "SiO2_PECVD_1" "SiO2_PECVD_2" "SiO2_PECVD_3" "SiO2_PECVD_4" "SiO2_PECVD_5" "SiO2_PECVD_6" "SiO2_PECVD_7" "SiO2_PECVD_8" "SiO2_PECVD_9" "SiO2_PECVD_10" "SiO2_PECVD_11" "SiO2_PECVD_12" "SiO2_PECVD_13" "SiO2_PECVD_14" "SiO2_PECVD_15" "SiO2_PECVD_16" "SiO2_PECVD_17" "SiO2_PECVD_18" "SiO2_PECVD_19" "SiO2_PECVD_20" "SiO2_PECVD_21" "SiO2_PECVD_22" "SiO2_PECVD_23" "SiO2_PECVD_24" "SiO2_PECVD_25" "SiO2_PECVD_26" "SiO2_PECVD_27" "SiO2_PECVD_28" "SiO2_PECVD_29" "SiO2_PECVD_30" "SiO2_PECVD_31" "SiO2_PECVD_32" "SiO2_PECVD_33" "SiO2_PECVD_34" "SiO2_PECVD_35" "SiO2_PECVD_36" "SiO2_PECVD_37" "SiO2_PECVD_38" "SiO2_PECVD_39" "SiO2_PECVD_40" "SiO2_PECVD_41" "SiO2_PECVD_42" "SiO2_PECVD_43" "SiO2_PECVD_44" "SiO2_PECVD_45" "SiO2_PECVD_46" "SiO2_PECVD_47" "SiO2_PECVD_48" "SiO2_PECVD_49" "SiO2_PECVD_50" "SiO2_PECVD_51" "SiO2_PECVD_52" "SiO2_PECVD_53" "SiO2_PECVD_54" "SiO2_PECVD_55" "SiO2_PECVD_56" "SiO2_PECVD_57" "SiO2_PECVD_58" "SiO2_PECVD_59" "SiO2_PECVD_60" "SiO2_PECVD_61" "SiO2_PECVD_62" "SiO2_PECVD_63" "SiO2_PECVD_64" "SiO2_PECVD_65" "SiO2_PECVD_66" "SiO2_PECVD_67" "SiO2_PECVD_68" "SiO2_PECVD_69" "SiO2_PECVD_70" "Si_Xtal_1" ]
  materials   = [ Si3N4_LPCVD Polymer SiO2_Thermal Si_Amorph Si_Amorph Si_Amorph Si_Amorph Si_Amorph Si_Amorph Si_Amorph Si_Amorph Si_Amorph Si_Amorph Si_Amorph Si_Amorph Si_Amorph Si_Amorph Si_Amorph Si_Amorph Si_Amorph Si_Amorph Si_Amorph Si_Amorph Si_Amorph Si_Amorph Si_Amorph Si_Amorph Si_Amorph Si_Amorph Si_Amorph Si_Amorph Si_Amorph Si_Amorph Si_Amorph Si_Amorph Si_Amorph Si_Amorph Si_Amorph Si_Amorph Si_Amorph Si_Amorph Si_Amorph Si_Amorph Si_Amorph Si_Amorph Si_Amorph Si_Amorph Si_Amorph Si_Amorph Si_Amorph Si_Amorph Si_Amorph Si_Amorph Si_Amorph Si_Amorph Si_Amorph Si_Amorph Si_Amorph Si_Amorph Si_Amorph Si_Amorph Si_Amorph Si_Amorph Si_Amorph Si_Amorph Si_Amorph Si_Amorph Si_Amorph Si_Amorph Si_Amorph Si_Amorph Si_Amorph Si_Amorph SiO2_PECVD SiO2_PECVD SiO2_PECVD SiO2_PECVD SiO2_PECVD SiO2_PECVD SiO2_PECVD SiO2_PECVD SiO2_PECVD SiO2_PECVD SiO2_PECVD SiO2_PECVD SiO2_PECVD SiO2_PECVD SiO2_PECVD SiO2_PECVD SiO2_PECVD SiO2_PECVD SiO2_PECVD SiO2_PECVD SiO2_PECVD SiO2_PECVD SiO2_PECVD SiO2_PECVD SiO2_PECVD SiO2_PECVD SiO2_PECVD SiO2_PECVD SiO2_PECVD SiO2_PECVD SiO2_PECVD SiO2_PECVD SiO2_PECVD SiO2_PECVD SiO2_PECVD SiO2_PECVD SiO2_PECVD SiO2_PECVD SiO2_PECVD SiO2_PECVD SiO2_PECVD SiO2_PECVD SiO2_PECVD SiO2_PECVD SiO2_PECVD SiO2_PECVD SiO2_PECVD SiO2_PECVD SiO2_PECVD SiO2_PECVD SiO2_PECVD SiO2_PECVD SiO2_PECVD SiO2_PECVD SiO2_PECVD SiO2_PECVD SiO2_PECVD SiO2_PECVD SiO2_PECVD SiO2_PECVD SiO2_PECVD SiO2_PECVD SiO2_PECVD SiO2_PECVD SiO2_PECVD SiO2_PECVD SiO2_PECVD SiO2_PECVD SiO2_PECVD SiO2_PECVD Si_Xtal ]
}

Data {
  CoordSystem {
    translate = [ 0 0 0 ]
    transform = [ 1 0 0
                  0 1 0
                  0 0 1 ]
  }

  Vertices (9707) {
    -598.535 -340.003 304.006
    -553.744 -339.996 304.054
    -615.995 -301.186 304.039
    -615.966 -339.812 304.19
    -597.425 -266.164 304.013
    -615.973 -270.464 304.172
    -616.01 -250.514 304.074
    -547.055 -261.555 304.063
    -504.017 -339.982 304.046
    -585.653 -217.171 304.042
    -616.002 -217.053 304.09
    -516.063 -198.063 304.063
    -615.99 -162.484 304.043
    -530.063 -95.5627 304.063
    -615.906 -101.335 304.053
    -599.709 -69.019 304.032
    -615.992 -71.795 304.115
    -615.969 -45.167 304.072
    -572.852 -37.7945 304.041
    -615.845 -27.4219 304.09
    -615.953 1.84705 304.038
    -440.313 -50.0627 304.063
    -479.254 -299.36 304.061
    -476.845 -329.309 304.021
    -460.883 -339.997 304.324
    -446.146 -339.983 304.014
    -402.917 -310.931 304.052
    -416.053 -340.012 304.037
    -388.198 -339.984 304.094
    -366.27 -339.986 304.02
    -377.063 -222.063 304.063
    -318.532 -301.953 304.061
    -327.929 -339.988 304.022
    -297.128 -339.989 304.052
    -267.027 -339.984 304.431
    -270.344 -332.238 304.023
    -239.799 -340.007 304.112
    -251.293 -320.867 304.047
    -255.311 -209.561 304.063
    -256.938 75.4373 304.063
    -225.003 -339.717 304.048
    -208.079 -339.979 304.052
    -158.809 -259.559 304.063
    -175.017 -339.999 304.031
    -140.605 -339.992 304.018
    -114.923 -340.003 304.046
    -99.5549 -229.055 304.063
    -86.941 -339.91 304.045
    -47.7804 -304.78 304.061
    -61.6122 -340.009 304.048
    -24.2207 -339.995 304.086
    -24.6384 -325.865 304.027
    -7.90873 -328.682 304.021
    16.4132 -339.996 304.112
    8.16549 -317.7 304.03
    17.9412 -163.059 304.063
    101.937 97.4373 304.063
    -600.059 34.332 304.023
    -615.997 28.3107 304.089
    -593.869 87.663 304.009
    -615.991 72.4821 304.137
    -507.561 79.6892 304.063
    -616.008 112.024 304.135
    -594.967 117.388 304.051
    -615.964 141.607 304.041
    -536.063 157.937 304.063
    -616.005 170.059 304.038
    -615.796 197.202 304.036
    -583.346 210.16 304.046
    -616.003 206.678 304.03
    -615.735 218.247 304.039
    -616.006 234.113 304.067
    -596.594 263.609 304.032
    -615.968 273.915 304.031
    -454.563 233.437 304.063
    -579.881 299.244 304.058
    -616.012 303.246 304.076
    -615.913 328.477 304.029
    -536.059 337.941 304.063
    -615.986 354.226 304.022
    -595.376 390.155 304.048
    -615.973 385.844 304.077
    -533.487 429.996 304.038
    -616.002 420.401 304.048
    -601.829 430.017 304.075
    -615.921 429.931 304.956
    -574.076 430.009 304.021
    -463.043 383.457 304.055
    -245.063 291.437 304.063
    -376.063 341.937 304.063
    -429.171 413.687 304.036
    -388.727 408.065 304.049
    -455.619 417.429 303.994
    -492.306 430 304.035
    -464.903 429.997 304.252
    -432.418 430.012 304.174
    -420.864 429.876 304.013
    -406.078 430.014 304.03
    -367.166 429.896 304.028
    -288.063 351.937 304.063
    -338.185 430.006 304.033
    -246.41 404.275 304.047
    -294.935 415.752 304.028
    -300.508 429.921 304.185
    -284.195 430.004 304.037
    -270.221 430.004 304.128
    -32.5627 251.687 304.063
    -140.304 356.884 304.061
    -212.644 430.005 304.043
    -160.105 429.997 304.033
    -122.552 429.804 304.03
    -107.169 417.448 304.029
    -71.42 381.799 304.059
    32.4397 349.815 304.062
    -30.9888 408.593 304.035
    -78.354 429.957 304.055
    -101.104 429.984 304.179
    -56.1682 429.898 304.018
    -35.004 429.995 304.13
    -10.4233 419.44 304.018
    9.35245 401.852 304.045
    -0.126761 429.934 304.06
    29.8182 -322.655 303.964
    35.9627 -295.537 304.059
    48.4975 -340.01 304.081
    86.0047 -339.993 304.037
    131.941 -259.059 304.063
    103.972 -339.726 304.038
    144.473 -307.027 304.055
    133.758 -340.009 304.071
    159.935 -339.976 304.418
    157.333 -329.509 303.976
    179.287 -340.011 304.103
    182.581 -321.815 304.05
    248.453 -282.047 304.063
    212.034 -340.004 304.03
    247.3 -331.488 304.022
    229.715 -339.739 304.029
    247.05 -340.007 304.387
    272.721 -339.704 304.037
    184.937 -155.063 304.063
    204.937 -6.06274 304.063
    285.459 -57.0412 304.055
    300.116 -155.378 304.056
    329.928 -319.909 304.037
    291.233 -340.001 304.051
    303.131 -339.854 304.016
    308.98 -284.52 304.039
    310.923 -238.318 304.046
    330.023 -296.149 304.15
    329.986 -265.349 304.074
    329.933 -339.97 304.175
    330.025 -188.305 304.042
    330.027 -244.404 304.088
    329.951 -232.034 304.053
    330.018 -210.833 304.11
    329.856 -165.522 304.04
    330 -148.246 304.043
    329.996 -122.522 304.038
    329.671 -109.957 304.037
    321.839 -86.7645 304.018
    330.004 -41.7766 304.097
    319.308 -63.0516 304.002
    330.004 -99.2615 304.369
    329.802 -31.947 304.012
    295.463 1.95525 304.049
    329.989 -10.3003 304.109
    329.926 18.0709 303.996
    219.937 271.937 304.063
    285.65 91.0255 304.047
    281.649 155.707 304.061
    285.767 55.7049 304.059
    304.631 209.009 304.049
    119.754 355.379 304.062
    50.0093 429.858 304.027
    72.7234 411.87 304.039
    21.4183 430 304.093
    81.1438 430.002 304.258
    112.884 429.797 304.008
    147.942 396.192 304.054
    213.541 359.744 304.059
    182.416 418.279 304.029
    129.049 430.005 304.111
    152.239 429.998 304.032
    176.53 430.006 304.179
    206.986 429.998 304.031
    263.442 429.981 304.032
    222.695 409.674 304.005
    223.551 429.912 304.129
    297.82 343.476 304.057
    329.989 56.1766 304.07
    329.936 76.666 304.022
    314.793 99.1008 303.989
    303.476 124.726 304.047
    329.698 102.763 304.025
    329.974 119.036 304.151
    329.997 88.8342 304.393
    329.912 147.936 304.029
    329.979 174.288 304.037
    330.015 197.841 304.176
    322.552 219.957 304.008
    313.484 244.059 304.041
    330.002 223.953 304.225
    330.016 253.994 304.074
    329.905 289.538 304.039
    329.964 315.767 304.039
    306.302 391.745 304.038
    330.009 361.871 304.054
    329.832 335.693 304.05
    329.988 386.168 304.112
    294.54 417.1 304.021
    296.36 429.989 304.217
    312.286 430.012 304.056
    330.008 414.436 304.114
    329.911 429.922 304.196
    -589.362 -339.978 203.985
    -615.996 -339.961 203.893
    -615.988 -308.492 203.948
    -615.97 -272.654 203.91
    -596.726 -282.498 204.011
    -555.239 -299.087 204.016
    -518.252 -339.994 203.951
    -501.476 -307.972 204.019
    -454.519 -157.472 204.016
    -587.774 -228.518 204.012
    -616.024 -246.256 203.953
    -616.007 -198.336 203.964
    -569.766 -149.328 204.016
    -615.981 -147.941 203.969
    -594.878 -120.79 204.008
    -616.018 -115.8 203.918
    -615.999 -60.061 203.96
    -582.493 -71.7668 204.011
    -615.89 -96.3985 203.979
    -598.867 -21.5237 204.008
    -616.021 -2.80898 203.968
    -563.88 27.192 204.015
    -458.016 -319.016 204.016
    -436.704 -339.98 203.967
    -409.328 -284.063 204.016
    -382.481 -339.98 203.98
    -318.497 -315.561 204.012
    -354.611 -339.766 203.987
    -342.847 -339.985 203.935
    -293.365 -340.002 203.973
    -173.641 -180.48 204.016
    -256.704 -339.962 203.977
    -226.516 -288.141 204.016
    -218.922 -339.985 203.985
    -356.264 201.574 204.016
    -180.641 -288.391 204.016
    -180.858 -339.999 203.952
    -145.122 -339.983 203.983
    -95.2484 -296.986 204.015
    -103.64 -340.011 203.959
    -62.4142 -339.903 203.984
    -27.5157 -309.016 204.016
    -1.0664 -339.898 203.991
    -35.6791 -339.901 203.954
    26.2352 -281.119 204.016
    54.04 117.882 204.016
    157.52 -96.3204 204.016
    -616.002 64.6874 203.976
    -591.924 91.0481 204.007
    -616.028 109.685 203.955
    -542.944 127.25 204.015
    -597.643 141.374 204.026
    -616.001 148.558 203.771
    -615.901 178.429 203.984
    -568.429 188.041 204.007
    -615.981 217.434 203.966
    -616.024 253.374 203.935
    -579.624 245.882 204.01
    -458.481 217.875 204.016
    -615.965 284.941 203.965
    -595.097 294.536 204.003
    -615.979 318.1 203.977
    -615.963 372.041 203.964
    -575.476 348.279 204.015
    -616.01 349.399 203.942
    -616.017 397.809 203.974
    -560.978 406.315 204.011
    -483.906 378.375 204.016
    -615.945 430.004 203.942
    -565.095 429.953 203.97
    -545.968 429.791 203.971
    -524.437 429.992 203.976
    -415.887 398.175 204.015
    -472.845 429.988 203.958
    -462.574 421.088 203.993
    -408.012 429.995 203.94
    -379.301 429.852 203.968
    -335.719 395.198 204.016
    -261.734 360.609 204.016
    -199.629 282.715 204.016
    -342.209 429.989 203.959
    -312.421 429.997 203.929
    -289.748 429.989 203.985
    -269.005 429.98 203.959
    -249.05 411.354 204.02
    -238.158 429.984 203.925
    -49.7188 279.904 204.016
    -117.789 356.875 204.016
    -171.054 398.094 204.013
    -227.786 406.225 204.015
    -199.264 410.986 204.008
    -169.504 429.992 203.93
    -141.994 429.836 203.984
    -117.559 429.955 203.973
    -55.9096 406.631 204.013
    -76.8276 429.982 203.981
    -9.74831 411.221 204.01
    -45.2973 429.995 203.875
    -26.0856 429.992 203.979
    -11.1831 429.811 203.961
    24.6125 430 203.949
    41.1444 -340.002 203.945
    50.721 -322.488 204.013
    88.0886 -339.971 203.95
    79.4114 -317.476 204.014
    112.475 -340.009 203.979
    146.4 -293.976 204.016
    135.621 -339.903 203.976
    158.865 -340.011 203.973
    173.812 -339.863 203.974
    203.855 -328.735 204.005
    222.325 -339.986 203.967
    230.75 -275.719 204.016
    247.86 -312.203 204.015
    258.868 -339.988 203.956
    276.484 -299.016 204.016
    269.117 -147.68 204.016
    292.547 -109.109 204.016
    284.777 -37.3557 204.017
    286.797 16.0781 204.016
    329.892 -340.01 203.921
    305.862 -323.511 204.013
    330.004 -314.539 203.913
    290.016 -219.766 204.016
    329.93 -290.955 203.981
    310.984 -270.016 204.016
    329.949 -265.465 203.899
    329.99 -242.103 203.978
    329.899 -212.211 203.963
    319.055 -175.245 204.008
    330.006 -145.044 203.974
    329.986 -186.087 203.908
    329.985 -107.816 203.919
    329.988 -76.7673 203.991
    311.519 -11.9754 204.027
    329.997 16.6401 203.944
    329.986 -44.9797 203.95
    330.008 -19.2692 203.861
    155.99 249.981 204.016
    280.047 79.1718 204.016
    59.2343 382.859 204.016
    144.047 362.734 204.016
    96.9551 405.033 204.008
    30.7353 408.423 204.012
    76.4831 429.988 203.969
    142.399 429.999 203.971
    278.276 342.632 204.017
    208.817 406.085 204.011
    214.293 429.99 203.922
    272.994 397.136 204.016
    264.138 429.981 203.97
    308.984 58.4843 204.016
    329.592 30.4713 203.991
    329.97 37.8473 203.959
    329.993 86.2564 203.948
    299.172 148.734 204.016
    313.837 109.257 204.015
    329.994 132.109 203.957
    299.984 193.984 204.016
    330.014 164.722 203.966
    329.954 189.605 203.922
    330.008 221.235 203.962
    302.672 216.859 204.016
    310.485 249.735 204.012
    329.982 284.436 203.979
    306.048 287.139 204.015
    329.996 370.689 203.993
    329.955 402.137 203.989
    330.008 337.085 203.957
    294.991 429.927 203.973
    329.903 430.013 203.902
    -615.976 -340.009 243.493
    -616.029 -286.757 213.458
    -615.974 -254.188 253.441
    -529.53 -340.014 249.22
    -616.043 -299.456 286.698
    -615.958 -340.016 293.48
    -505.912 -340.01 290.52
    -615.969 -220.031 241.969
    -615.996 -163.958 273.355
    -615.976 -131.029 242.471
    -616.013 -93.7363 225.861
    -615.972 -98.3526 260.872
    -615.969 -50.0314 239.969
    -615.974 3.92677 246.785
    -616 -64.1483 272.164
    -616.026 -33.3402 289.439
    -616.035 -190.683 292.196
    -616.04 -131.869 291.54
    -616.071 -97.1395 289.471
    -616.074 -8.49254 287.277
    -454.217 -340.017 239.186
    -416.031 -340.016 249.969
    -352.801 -340.069 213.72
    -351.154 -340.013 242.283
    -302.997 -340.014 238.202
    -256.029 -340.012 242.471
    -291.007 -340.022 285.568
    -206.216 -340.011 254.346
    -135.893 -340.011 255.094
    -78.2769 -340.01 228.543
    -73.2485 -340.01 288.848
    -56.0933 -340.045 218.295
    -30.853 -340.007 263.565
    -13.478 -340.024 222.418
    -216.585 -340.025 296.571
    -616.04 11.9035 292.85
    -615.962 40.4302 243.936
    -616.007 78.4681 268.781
    -615.973 126.157 249.845
    -615.991 169.991 266.163
    -615.995 189.027 218.79
    -615.984 225.973 261.973
    -615.969 271.969 239.969
    -616.011 251.483 279.295
    -616.043 58.3698 296.894
    -616.03 132.072 293.554
    -616.058 189.111 290.77
    -616.04 221.982 297.783
    -616.022 295.894 215.031
    -615.975 313.864 246.219
    -615.982 369.974 238.224
    -615.982 429.997 268.357
    -551.727 429.995 244.833
    -544.565 430.046 217.622
    -616.009 343.977 287.166
    -616.017 402.795 277.148
    -616.034 377.752 292.667
    -406.088 429.99 275.378
    -383.733 430.028 219.374
    -352.031 429.992 243.969
    -305.773 429.995 281.487
    -373.475 430.003 288.687
    -136.529 429.992 242.471
    -148.721 430.061 211.573
    -112.277 429.993 228.598
    -90.7491 430.038 216.231
    -53.847 429.991 240.697
    -94.4912 429.994 269.665
    -31.9809 429.979 253.269
    -12.432 430.015 211.573
    0.97451 429.992 248.475
    -118.089 430.015 293.848
    -71.1998 430.016 296.077
    -57.4901 430.046 283.73
    -13.346 430.027 285.121
    61.179 -340.011 241.204
    77.9146 -340.002 268.821
    123.638 -340.007 280.838
    135.269 -340.008 219.204
    176.13 -340.007 270.61
    189.321 -340.033 227.474
    228.28 -340.014 257.941
    293.767 -340.003 251.373
    103.776 -340.058 294.628
    226.749 -340.028 297.731
    330.01 -339.947 244.636
    329.981 -340.007 277.353
    329.996 -279.59 218.899
    329.992 -292.773 269.477
    329.976 -238.031 243.969
    270.578 -340.019 297.523
    307.461 -340.016 294.119
    330.016 -245.747 289.32
    330.013 -209.324 214.228
    329.976 -180.031 249.469
    329.979 -108.489 234.578
    329.983 -46.8883 265.507
    329.994 -93.6461 271.791
    329.984 16.9725 240.973
    329.992 -135.634 272.614
    330.024 -163.869 294.437
    330.052 -109.186 291.675
    330.023 -31.9865 293.84
    50.1133 429.994 245.002
    108.012 429.993 235.411
    113.363 430.007 292.741
    193.2 429.99 257.828
    240.642 430.023 219.483
    263.969 429.992 252.969
    52.865 430.009 290.692
    233.734 430.015 292.454
    330.056 29.2306 214.676
    329.995 49.7737 221.86
    329.98 94.0906 257.002
    329.977 184.906 251.412
    329.981 239.404 263.769
    329.992 43.977 272.352
    330.026 11.0124 293.299
    330.032 71.2494 292.887
    330.025 104.763 296.14
    330.027 152.161 290.684
    329.976 301.969 239.969
    329.984 353.973 250.66
    330.022 387.905 212.716
    329.989 383.658 272.357
    303.493 429.993 230.85
    329.968 430.032 230.106
    330.005 300.029 286.949
    295.497 429.995 273.224
    330.001 429.962 262.351
    330.04 333.345 289.952
    -606.266 -311.17 364.092
    -596.219 -320.991 364.072
    -605.903 -299.361 363.936
    -606.503 -323.541 363.606
    -586.868 -281.04 364.007
    -606.368 -277.515 363.951
    -581.713 -317.249 364.098
    -582.324 -322.51 363.693
    -581.972 -289.834 364.023
    -581.844 -255.161 364.06
    -605.921 -240.618 363.99
    -581.948 -287.801 363.66
    -570.185 -339.725 364.168
    -552.585 -339.991 364.028
    -562.623 -323.578 363.961
    -569.991 -317.36 363.996
    -545.954 -332.735 363.662
    -545.949 -339.574 364.253
    -545.85 -314.064 364.003
    -534.401 -339.358 363.793
    -526.328 -340.004 364.092
    -534.21 -311.459 363.986
    -510.882 -339.938 363.996
    -510.049 -317.818 363.895
    -570.111 -302.034 364.043
    -545.977 -291.49 364.029
    -563.276 -286.844 364.029
    -569.778 -287.667 363.787
    -552.809 -286.389 364.056
    -546.107 -285.054 363.761
    -569.775 -285.159 363.424
    -534.052 -297.983 364.067
    -510.017 -297.779 363.909
    -534.029 -288.553 363.92
    -509.672 -279.116 364.035
    -534.2 -267.113 364.018
    -510.001 -262.385 364.025
    -534.236 -248.385 363.907
    -581.865 -228.945 364.074
    -594.352 -210.242 364
    -606.222 -217.837 364.045
    -606.334 -187.661 364.018
    -581.883 -210.208 363.817
    -581.866 -190.618 363.936
    -581.866 -175.135 364.032
    -605.938 -178.071 363.876
    -606.093 -157.089 363.989
    -581.617 -151.744 364.018
    -599.442 -142.566 363.968
    -606.237 -141.556 363.799
    -589.779 -142.616 364.048
    -581.608 -140.41 363.515
    -570.053 -241.19 364.025
    -570.043 -251.239 364.107
    -562.079 -249.113 363.868
    -545.966 -241.297 363.954
    -570.017 -228.588 364.052
    -551.619 -249.456 363.869
    -545.956 -250.681 363.578
    -545.912 -216.897 364.034
    -545.85 -201.906 364.063
    -569.986 -177.8 363.956
    -570.208 -195.623 364.045
    -570.484 -204.316 363.889
    -534.095 -233.012 363.991
    -517.144 -214.896 364.022
    -527.681 -214.895 364.072
    -509.884 -248.24 363.915
    -509.602 -219.816 364.101
    -534.189 -213.749 364.385
    -559.591 -177.064 364.003
    -569.87 -174.886 363.773
    -570.381 -160.803 364.068
    -545.968 -178.855 363.903
    -546.167 -166.526 364.026
    -545.929 -158.423 363.983
    -570.122 -139.311 364.037
    -545.743 -137.118 364.002
    -569.846 -117.947 364.001
    -534.067 -173.085 363.979
    -534.163 -179.43 363.491
    -526.584 -177.163 364.008
    -522.651 -156.461 364.011
    -516.086 -177.254 364.067
    -509.938 -156.303 363.853
    -534.359 -148.361 364.07
    -533.964 -140.15 364.016
    -510.002 -135.394 363.991
    -534.328 -117.8 363.966
    -509.906 -149.5 363.834
    -605.922 -107.106 363.674
    -598.772 -105.484 364.036
    -606.316 -98.6558 363.975
    -588.26 -105.166 364
    -581.973 -94.2415 363.919
    -581.934 -107.143 364.327
    -582.12 -87.011 363.948
    -606.141 -83.0474 364.099
    -600.74 -71.72 363.977
    -606.339 -62.6038 364.177
    -581.875 -70.8584 364.05
    -606.066 -49.3432 364.013
    -581.699 -48.1845 364.043
    -582.108 -30.8731 364.036
    -605.964 -28.1783 364.042
    -582.013 -8.30042 363.899
    -606.048 -13.1474 363.984
    -606.235 3.1436 364.024
    -570.053 -96.0984 364.025
    -546.043 -104.34 363.937
    -545.873 -120.73 364.08
    -545.79 -91.5434 363.941
    -563.6 -70.888 363.979
    -569.732 -68.7919 363.548
    -570.266 -81.0159 364.038
    -545.794 -81.6501 363.962
    -553.273 -70.9083 363.925
    -545.57 -68.8839 363.536
    -509.682 -106.757 364.042
    -534.335 -90.8061 364.009
    -510.023 -95.3902 363.979
    -534.149 -68.0626 364.025
    -509.557 -70.866 363.974
    -562.605 -15.869 364.003
    -570.326 -21.6538 364.325
    -570.14 -35.5617 363.548
    -562.428 -33.1834 363.991
    -570.091 -7.79063 364.038
    -570.054 3.72702 363.947
    -545.918 -11.5845 364.079
    -545.608 -34.9253 363.501
    -545.643 -27.6688 363.982
    -546.053 1.35715 363.918
    -534.125 -37.5418 364.051
    -509.851 -50.4345 363.934
    -510.144 -30.8046 363.926
    -534.321 -8.37143 364.04
    -526.43 1.63333 364.024
    -534.107 2.84402 363.837
    -534.16 -21.8866 363.889
    -509.931 -10.8737 364.032
    -515.308 1.53701 363.823
    -509.718 -329.834 363.74
    -510.308 -212.933 363.515
    -509.735 -179.475 363.505
    -437.529 -340.001 363.912
    -461.988 -321.433 363.955
    -461.988 -339.691 364.195
    -437.928 -315.237 364.075
    -462.349 -306.256 364.001
    -474.107 -322.672 363.642
    -473.9 -305.1 363.896
    -480.301 -321.193 364.037
    -498.036 -323.183 364.045
    -489.927 -321.077 364.055
    -498.14 -293.692 364.037
    -473.822 -291.077 363.941
    -497.904 -275.985 363.979
    -473.81 -261.124 364.042
    -474.118 -249.036 363.946
    -498.262 -259.006 364.04
    -462.196 -293.998 363.783
    -451.725 -287.222 364.109
    -461.651 -285.438 363.83
    -437.987 -297.218 363.921
    -442.025 -285.922 363.774
    -411.729 -339.99 364.066
    -426.415 -326.642 364.067
    -425.754 -339.987 363.859
    -401.901 -316.986 363.859
    -426.099 -315.741 363.923
    -402.042 -340.009 364.232
    -389.795 -323.117 363.519
    -382.853 -321.19 364.052
    -389.957 -314.093 364.02
    -438.039 -284.642 363.366
    -426.244 -295.285 364.036
    -402.011 -288.7 364.076
    -426.577 -265.697 363.902
    -415.95 -266.249 364.006
    -426.076 -246.968 363.914
    -366.004 -307.705 364
    -390.403 -305.109 364.039
    -389.946 -277.232 364.011
    -401.986 -269.561 363.927
    -401.766 -241.261 364.005
    -389.99 -270.984 363.676
    -382.768 -264.959 363.993
    -390.176 -257.205 363.983
    -354.069 -320.022 363.971
    -354.275 -340.001 364.133
    -340.838 -339.951 364.055
    -330.029 -339.458 363.71
    -329.981 -330.49 363.987
    -330.014 -304.595 364.01
    -373.194 -321.08 364.008
    -366.108 -322.751 363.558
    -365.538 -290.468 363.846
    -365.802 -274.633 364.043
    -353.862 -318.187 363.997
    -347.109 -286.907 364.016
    -354.433 -285.592 364.053
    -330.538 -302.045 363.718
    -329.822 -293.488 364.039
    -337.13 -286.773 364.04
    -330.345 -285.186 364.406
    -306.509 -339.907 364.001
    -318.085 -333.133 363.846
    -318.136 -339.639 363.966
    -318.104 -322.286 364.094
    -294.191 -339.967 364.212
    -294.045 -319.148 364.027
    -317.697 -312.429 363.729
    -317.958 -305.213 364.057
    -294.005 -295.515 363.9
    -318.021 -290.547 364.039
    -293.99 -287.97 364.028
    -318.037 -264.304 363.963
    -293.909 -256.923 364.052
    -281.886 -323.241 363.596
    -274.496 -321.207 364.001
    -281.973 -315.329 364.111
    -282.259 -299.487 363.951
    -264.984 -300.662 364.004
    -262.328 -321.747 364.123
    -257.652 -306.389 363.759
    -257.673 -322.845 363.626
    -258.043 -291.909 364.01
    -281.957 -276.09 363.962
    -281.807 -256.814 364.032
    -257.828 -264.526 364.049
    -257.914 -239.668 363.975
    -497.963 -245.896 363.955
    -473.958 -244.893 363.936
    -498.191 -232.063 364.028
    -473.938 -218.663 364.047
    -498.253 -197.999 364.334
    -498.144 -210.765 363.919
    -488.099 -198.677 363.977
    -498.152 -183.332 363.933
    -473.913 -195.697 363.926
    -461.748 -250.962 363.454
    -455.647 -249.562 364.061
    -462.108 -244.483 364.089
    -445.395 -249.222 364.067
    -462.045 -228.369 363.958
    -437.944 -238.893 364.024
    -437.823 -227.404 363.92
    -456.846 -203.118 363.988
    -462.176 -208.731 363.814
    -439.003 -213.863 364.003
    -437.905 -208.964 364.05
    -461.928 -195.872 363.747
    -461.891 -184.217 364.003
    -437.926 -175.433 364.051
    -473.851 -172.246 364.061
    -498.27 -160.503 363.979
    -481.097 -142.864 364.011
    -498.123 -150.174 364.055
    -491.322 -142.742 363.957
    -498.214 -140.74 363.539
    -473.821 -150.436 364.036
    -462.031 -162.749 363.911
    -437.951 -157.52 364.018
    -473.865 -140.89 364.643
    -446.86 -147.395 364.002
    -462.048 -139.624 364.041
    -438.167 -251.192 364.44
    -418.242 -214.616 364.004
    -426.091 -225.386 363.651
    -426.268 -238.198 364.045
    -401.911 -224.793 363.97
    -437.957 -214.21 363.657
    -425.714 -213.195 363.931
    -407.984 -214.442 364.068
    -390.08 -224.548 364.03
    -390.244 -239.1 363.621
    -385.181 -244.55 364.017
    -401.575 -212.515 363.496
    -425.837 -179.121 363.724
    -419.576 -177.654 363.969
    -426.18 -156.124 364.071
    -401.941 -162.733 363.953
    -438.032 -149.456 363.647
    -437.853 -138.538 364.038
    -426.37 -144.769 363.95
    -410.248 -126.566 363.979
    -426.109 -117.162 364.035
    -408.21 -148.958 363.979
    -408.605 -177.181 364.019
    -402.026 -178.677 363.693
    -390.309 -172.032 364.049
    -389.923 -183.374 363.888
    -366.062 -180.73 364
    -402.043 -148.4 363.737
    -401.973 -143.438 363.982
    -402.004 -136.456 364.236
    -377.523 -142.782 364.035
    -390.424 -147.562 363.77
    -389.015 -141.14 363.32
    -497.888 -107.279 364.348
    -490.978 -105.264 364.023
    -498.657 -91.7239 363.518
    -498.113 -83.0355 363.999
    -473.829 -98.153 364.052
    -479.186 -105.581 364.11
    -473.975 -71.3548 363.999
    -497.94 -68.8632 364
    -473.962 -107.123 364.375
    -462.47 -108.619 363.715
    -460.997 -110.787 364.004
    -437.712 -107.706 363.955
    -461.96 -98.6987 363.976
    -445.384 -70.9245 364.016
    -462.03 -85.6068 363.879
    -455.093 -70.9072 364.076
    -461.745 -69.2276 364.152
    -473.647 -48.0057 364.055
    -498.039 -51.9274 363.937
    -498.307 -34.8281 364.059
    -474.066 -29.3082 363.948
    -510.009 3.22501 363.722
    -498.257 -5.22942 363.991
    -474.115 -17.3059 363.994
    -474.118 1.38387 364.052
    -473.998 7.39537 363.943
    -445.512 -32.9991 363.928
    -462.316 -24.4632 364.09
    -454.051 -33.2235 364.059
    -461.687 -34.8512 363.87
    -437.95 -35.3102 363.906
    -462.096 -1.05043 363.963
    -437.8 8.31095 364.034
    -462.25 10.5391 364.011
    -401.995 -90.7492 363.956
    -425.959 -92.8063 363.957
    -406.196 -103.228 363.997
    -437.67 -85.2609 364.05
    -437.963 -68.6941 363.53
    -426.3 -83.747 363.853
    -401.416 -109.28 363.873
    -401.862 -98.0983 363.478
    -390.082 -103.557 363.857
    -389.874 -107.248 363.474
    -382.859 -105.234 364.08
    -426.33 -68.8463 364.028
    -401.99 -40.3447 364.015
    -426.097 -31.4342 364.076
    -426.253 -3.65846 363.985
    -419.234 1.12945 364.135
    -426.163 2.89006 363.454
    -401.838 -8.28874 364.016
    -409.262 1.15358 363.998
    -401.843 -54.0823 364.024
    -402.197 3.15151 363.943
    -390.028 -21.9362 364.117
    -365.965 -24.5578 363.977
    -389.929 -11.214 363.942
    -377.875 1.21406 364.002
    -389.95 8.89284 363.989
    -365.993 -244.261 364.002
    -365.755 -229.012 364.037
    -365.83 -239.214 363.695
    -390.056 -202.705 364.028
    -365.961 -208.204 363.996
    -365.652 -193.673 364.036
    -354.115 -239.736 363.931
    -354.314 -251.286 363.45
    -346.708 -249.211 364.107
    -336.684 -249.114 364.072
    -354.143 -211.553 363.929
    -354.12 -227.09 364.048
    -329.931 -226.385 364.045